LAMMPS Description

     4698  atoms
     4959  bonds
     8700  angles
     13659  dihedrals
     5220  impropers

     8  atom types
     24  bond types
     99  angle types
     350  dihedral types
     2  improper types

     -56.762 26.4848 xlo xhi 
     -56.762 26.4848 ylo yhi 
     -56.762 26.4848 zlo zhi 

Masses

    1 12.011 #CT "Alkane CH3-" 6 partial charge=-0.222
    2 12.011 #CT "Alkane -CH2-" 6 partial charge=-0.148
    3 12.011 #CT "Alkane >CH-" 6 partial charge=-0.16
    4 1.008 #HC "Alkane H-C" 1 partial charge=0.074
    5 12.011 #CA "Aromatic C" 6 partial charge=-0.115
    6 1.008 #HA "Aromatic H-C" 1 partial charge=0.115
    7 12.011 #CA "Naphthalene Fusion C" 6 partial charge=0.0
    8 1.008 #HC "Alkane H-C" 1 partial charge=0.16

Atoms

1 1 1 0.00 -51.033 -0.417 0.11
2 1 3 0.00 -49.67 -0.984 -0.265
3 1 7 0.00 -49.598 -2.467 -0.547
4 1 5 0.00 -50.708 -3.321 -0.506
5 1 5 0.00 -50.571 -4.685 -0.78
6 1 5 0.00 -49.323 -5.214 -1.099
7 1 5 0.00 -48.21 -4.381 -1.146
8 1 5 0.00 -48.347 -3.018 -0.872
9 1 4 0.00 -50.954 0.659 0.295
10 1 4 0.00 -51.762 -0.565 -0.693
11 1 8 0.00 -49.313 -0.451 -1.156
12 1 6 0.00 -51.698 -2.945 -0.261
13 1 6 0.00 -51.442 -5.334 -0.744
14 1 6 0.00 -49.22 -6.275 -1.312
15 1 6 0.00 -47.234 -4.789 -1.395
16 1 6 0.00 -47.466 -2.381 -0.913
17 1 4 0.00 -51.359 -0.932 0.989
18 1 2 0.00 -47.50988 -0.11000000000000003 -0.417
19 1 3 0.00 -46.14688 0.26499999999999996 -0.984
20 1 7 0.00 -46.07488 0.5469999999999999 -2.467
21 1 5 0.00 -47.18488 0.5059999999999998 -3.321
22 1 5 0.00 -47.04788 0.7799999999999997 -4.685
23 1 5 0.00 -45.79988 1.0989999999999998 -5.214
24 1 5 0.00 -44.68688 1.1459999999999997 -4.381
25 1 5 0.00 -44.82388 0.8719999999999998 -3.018
26 1 4 0.00 -47.43088 -0.29499999999999993 0.659
27 1 4 0.00 -48.23888 0.693 -0.565
28 1 8 0.00 -45.789880000000004 1.156 -0.45100000000000007
29 1 6 0.00 -48.17488 0.26099999999999984 -2.945
30 1 6 0.00 -47.91888 0.7439999999999997 -5.334
31 1 6 0.00 -45.69688 1.3119999999999996 -6.275
32 1 6 0.00 -43.71088 1.3949999999999998 -4.789
33 1 6 0.00 -43.94288 0.9129999999999999 -2.381
34 1 2 0.00 -43.98677 -0.417 0.11
35 1 3 0.00 -42.62377 -0.984 -0.265
36 1 7 0.00 -41.91453 -0.346311 -1.43732
37 1 5 0.00 -42.452869 0.702116 -2.195
38 1 5 0.00 -41.74277 1.24535 -3.2697
39 1 5 0.00 -40.48524 0.74804 -3.60201
40 1 5 0.00 -39.935559999999995 -0.293628 -2.86198
41 1 5 0.00 -40.64519 -0.836285 -1.78794
42 1 4 0.00 -43.90777 0.659 0.295
43 1 4 0.00 -44.71577 -0.565 -0.693
44 1 8 0.00 -42.748073999999995 -2.05274 -0.483552
45 1 6 0.00 -43.43132 1.11655 -1.96614
46 1 6 0.00 -42.174454 2.05834 -3.84748
47 1 6 0.00 -39.935919999999996 1.17238 -4.43859
48 1 6 0.00 -38.95473 -0.685541 -3.11773
49 1 6 0.00 -40.20023 -1.65039 -1.21973
50 1 2 0.00 -40.4637 -0.11000000000000003 -0.417
51 1 3 0.00 -39.1007 0.26499999999999996 -0.984
52 1 7 0.00 -38.39146 1.43732 -0.3463110000000001
53 1 5 0.00 -38.929799 2.195 0.7021159999999999
54 1 5 0.00 -38.2197 3.2697 1.2453499999999997
55 1 5 0.00 -36.96217 3.60201 0.7480399999999998
56 1 5 0.00 -36.412490000000005 2.86198 -0.29362800000000017
57 1 5 0.00 -37.12212 1.78794 -0.8362850000000001
58 1 4 0.00 -40.3847 -0.29499999999999993 0.659
59 1 4 0.00 -41.1927 0.693 -0.565
60 1 8 0.00 -39.225004 0.48355199999999987 -2.05274
61 1 6 0.00 -39.90825 1.96614 1.1165499999999997
62 1 6 0.00 -38.651384 3.84748 2.0583399999999994
63 1 6 0.00 -36.41285 4.43859 1.1723799999999998
64 1 6 0.00 -35.43166 3.11773 -0.6855410000000002
65 1 6 0.00 -36.67716 1.21973 -1.65039
66 1 2 0.00 -36.9405 -0.417 0.11
67 1 3 0.00 -35.5775 -0.984 -0.265
68 1 7 0.00 -34.86826 -0.346311 -1.43732
69 1 5 0.00 -35.406599 0.702116 -2.195
70 1 5 0.00 -34.6965 1.24535 -3.2697
71 1 5 0.00 -33.43897 0.74804 -3.60201
72 1 5 0.00 -32.88929 -0.293628 -2.86198
73 1 5 0.00 -33.59892 -0.836285 -1.78794
74 1 4 0.00 -36.8615 0.659 0.295
75 1 4 0.00 -37.6695 -0.565 -0.693
76 1 8 0.00 -35.701803999999996 -2.05274 -0.483552
77 1 6 0.00 -36.38505 1.11655 -1.96614
78 1 6 0.00 -35.128184 2.05834 -3.84748
79 1 6 0.00 -32.889649999999996 1.17238 -4.43859
80 1 6 0.00 -31.908459999999998 -0.685541 -3.11773
81 1 6 0.00 -33.15396 -1.65039 -1.21973
82 1 2 0.00 -33.4174 -0.11000000000000003 -0.417
83 1 3 0.00 -32.0544 0.26499999999999996 -0.984
84 1 7 0.00 -31.34516 1.43732 -0.3463110000000001
85 1 5 0.00 -31.883499 2.195 0.7021159999999999
86 1 5 0.00 -31.1734 3.2697 1.2453499999999997
87 1 5 0.00 -29.915869999999998 3.60201 0.7480399999999998
88 1 5 0.00 -29.36619 2.86198 -0.29362800000000017
89 1 5 0.00 -30.07582 1.78794 -0.8362850000000001
90 1 4 0.00 -33.3384 -0.29499999999999993 0.659
91 1 4 0.00 -34.1464 0.693 -0.565
92 1 8 0.00 -32.178703999999996 0.48355199999999987 -2.05274
93 1 6 0.00 -32.86195 1.96614 1.1165499999999997
94 1 6 0.00 -31.605083999999998 3.84748 2.0583399999999994
95 1 6 0.00 -29.36655 4.43859 1.1723799999999998
96 1 6 0.00 -28.38536 3.11773 -0.6855410000000002
97 1 6 0.00 -29.63086 1.21973 -1.65039
98 1 2 0.00 -29.8943 -0.417 0.11
99 1 3 0.00 -28.5313 -0.984 -0.265
100 1 7 0.00 -28.4593 -2.467 -0.547
101 1 5 0.00 -29.5693 -3.321 -0.506
102 1 5 0.00 -29.4323 -4.685 -0.78
103 1 5 0.00 -28.1843 -5.214 -1.099
104 1 5 0.00 -27.0713 -4.381 -1.146
105 1 5 0.00 -27.2083 -3.018 -0.872
106 1 4 0.00 -29.8153 0.659 0.295
107 1 4 0.00 -30.6233 -0.565 -0.693
108 1 8 0.00 -28.1743 -0.451 -1.156
109 1 6 0.00 -30.5593 -2.945 -0.261
110 1 6 0.00 -30.3033 -5.334 -0.744
111 1 6 0.00 -28.0813 -6.275 -1.312
112 1 6 0.00 -26.0953 -4.789 -1.395
113 1 6 0.00 -26.3273 -2.381 -0.913
114 1 2 0.00 -26.3712 -0.11000000000000003 -0.417
115 1 3 0.00 -25.008200000000002 0.26499999999999996 -0.984
116 1 7 0.00 -24.9362 0.5469999999999999 -2.467
117 1 5 0.00 -26.0462 0.5059999999999998 -3.321
118 1 5 0.00 -25.909200000000002 0.7799999999999997 -4.685
119 1 5 0.00 -24.6612 1.0989999999999998 -5.214
120 1 5 0.00 -23.5482 1.1459999999999997 -4.381
121 1 5 0.00 -23.685200000000002 0.8719999999999998 -3.018
122 1 4 0.00 -26.2922 -0.29499999999999993 0.659
123 1 4 0.00 -27.1002 0.693 -0.565
124 1 8 0.00 -24.6512 1.156 -0.45100000000000007
125 1 6 0.00 -27.0362 0.26099999999999984 -2.945
126 1 6 0.00 -26.7802 0.7439999999999997 -5.334
127 1 6 0.00 -24.5582 1.3119999999999996 -6.275
128 1 6 0.00 -22.572200000000002 1.3949999999999998 -4.789
129 1 6 0.00 -22.8042 0.9129999999999999 -2.381
130 1 2 0.00 -22.848100000000002 -0.417 0.11
131 1 3 0.00 -21.485100000000003 -0.984 -0.265
132 1 7 0.00 -20.77586 -0.346311 -1.43732
133 1 5 0.00 -21.314199000000002 0.702116 -2.195
134 1 5 0.00 -20.604100000000003 1.24535 -3.2697
135 1 5 0.00 -19.34657 0.74804 -3.60201
136 1 5 0.00 -18.79689 -0.293628 -2.86198
137 1 5 0.00 -19.506520000000002 -0.836285 -1.78794
138 1 4 0.00 -22.7691 0.659 0.295
139 1 4 0.00 -23.5771 -0.565 -0.693
140 1 8 0.00 -21.609404 -2.05274 -0.483552
141 1 6 0.00 -22.292650000000002 1.11655 -1.96614
142 1 6 0.00 -21.035784 2.05834 -3.84748
143 1 6 0.00 -18.797250000000002 1.17238 -4.43859
144 1 6 0.00 -17.81606 -0.685541 -3.11773
145 1 6 0.00 -19.06156 -1.65039 -1.21973
146 1 2 0.00 -19.325000000000003 -0.11000000000000003 -0.417
147 1 2 0.00 -17.962000000000003 0.26499999999999996 -0.984
148 1 7 0.00 -17.89 0.5469999999999999 -2.467
149 1 5 0.00 -19.0 0.5059999999999998 -3.321
150 1 5 0.00 -18.863000000000003 0.7799999999999997 -4.685
151 1 5 0.00 -17.615000000000002 1.0989999999999998 -5.214
152 1 5 0.00 -16.502000000000002 1.1459999999999997 -4.381
153 1 5 0.00 -16.639000000000003 0.8719999999999998 -3.018
154 1 4 0.00 -19.246000000000002 -0.29499999999999993 0.659
155 1 4 0.00 -20.054000000000002 0.693 -0.565
156 1 4 0.00 -17.605 1.156 -0.45100000000000007
157 1 6 0.00 -19.990000000000002 0.26099999999999984 -2.945
158 1 6 0.00 -19.734 0.7439999999999997 -5.334
159 1 6 0.00 -17.512 1.3119999999999996 -6.275
160 1 6 0.00 -15.526000000000002 1.3949999999999998 -4.789
161 1 6 0.00 -15.758000000000003 0.9129999999999999 -2.381
162 1 4 0.00 -17.357000000000003 -0.606 -0.841
163 2 1 0.00 -51.033 -8.94012 0.11
164 2 3 0.00 -49.67 -9.50712 -0.265
165 2 7 0.00 -48.96076 -8.869431 -1.43732
166 2 5 0.00 -49.499099 -7.821004 -2.195
167 2 5 0.00 -48.789 -7.27777 -3.2697
168 2 5 0.00 -47.53147 -7.775080000000001 -3.60201
169 2 5 0.00 -46.981790000000004 -8.816748 -2.86198
170 2 5 0.00 -47.69142 -9.359405 -1.78794
171 2 4 0.00 -50.954 -7.864120000000001 0.295
172 2 4 0.00 -51.762 -9.08812 -0.693
173 2 8 0.00 -49.794304 -10.57586 -0.483552
174 2 6 0.00 -50.47755 -7.40657 -1.96614
175 2 6 0.00 -49.220684 -6.464780000000001 -3.84748
176 2 6 0.00 -46.98215 -7.35074 -4.43859
177 2 6 0.00 -46.00096 -9.208661000000001 -3.11773
178 2 6 0.00 -47.24646 -10.17351 -1.21973
179 2 4 0.00 -51.359 -9.45512 0.989
180 2 2 0.00 -47.50988 -8.63312 -0.417
181 2 3 0.00 -46.14688 -8.25812 -0.984
182 2 7 0.00 -45.43764 -7.085800000000001 -0.3463110000000001
183 2 5 0.00 -45.975979 -6.32812 0.7021159999999999
184 2 5 0.00 -45.26588 -5.25342 1.2453499999999997
185 2 5 0.00 -44.00835 -4.9211100000000005 0.7480399999999998
186 2 5 0.00 -43.45867 -5.6611400000000005 -0.29362800000000017
187 2 5 0.00 -44.1683 -6.735180000000001 -0.8362850000000001
188 2 4 0.00 -47.43088 -8.81812 0.659
189 2 4 0.00 -48.23888 -7.830120000000001 -0.565
190 2 8 0.00 -46.271184 -8.039568000000001 -2.05274
191 2 6 0.00 -46.95443 -6.55698 1.1165499999999997
192 2 6 0.00 -45.697564 -4.6756400000000005 2.0583399999999994
193 2 6 0.00 -43.45903 -4.084530000000001 1.1723799999999998
194 2 6 0.00 -42.47784 -5.405390000000001 -0.6855410000000002
195 2 6 0.00 -43.72334 -7.30339 -1.65039
196 2 2 0.00 -43.98677 -8.94012 0.11
197 2 3 0.00 -42.62377 -9.50712 -0.265
198 2 7 0.00 -41.91453 -8.869431 -1.43732
199 2 5 0.00 -42.452869 -7.821004 -2.195
200 2 5 0.00 -41.74277 -7.27777 -3.2697
201 2 5 0.00 -40.48524 -7.775080000000001 -3.60201
202 2 5 0.00 -39.935559999999995 -8.816748 -2.86198
203 2 5 0.00 -40.64519 -9.359405 -1.78794
204 2 4 0.00 -43.90777 -7.864120000000001 0.295
205 2 4 0.00 -44.71577 -9.08812 -0.693
206 2 8 0.00 -42.748073999999995 -10.57586 -0.483552
207 2 6 0.00 -43.43132 -7.40657 -1.96614
208 2 6 0.00 -42.174454 -6.464780000000001 -3.84748
209 2 6 0.00 -39.935919999999996 -7.35074 -4.43859
210 2 6 0.00 -38.95473 -9.208661000000001 -3.11773
211 2 6 0.00 -40.20023 -10.17351 -1.21973
212 2 2 0.00 -40.4637 -8.63312 -0.417
213 2 3 0.00 -39.1007 -8.25812 -0.984
214 2 7 0.00 -38.39146 -7.085800000000001 -0.3463110000000001
215 2 5 0.00 -38.929799 -6.32812 0.7021159999999999
216 2 5 0.00 -38.2197 -5.25342 1.2453499999999997
217 2 5 0.00 -36.96217 -4.9211100000000005 0.7480399999999998
218 2 5 0.00 -36.412490000000005 -5.6611400000000005 -0.29362800000000017
219 2 5 0.00 -37.12212 -6.735180000000001 -0.8362850000000001
220 2 4 0.00 -40.3847 -8.81812 0.659
221 2 4 0.00 -41.1927 -7.830120000000001 -0.565
222 2 8 0.00 -39.225004 -8.039568000000001 -2.05274
223 2 6 0.00 -39.90825 -6.55698 1.1165499999999997
224 2 6 0.00 -38.651384 -4.6756400000000005 2.0583399999999994
225 2 6 0.00 -36.41285 -4.084530000000001 1.1723799999999998
226 2 6 0.00 -35.43166 -5.405390000000001 -0.6855410000000002
227 2 6 0.00 -36.67716 -7.30339 -1.65039
228 2 2 0.00 -36.9405 -8.94012 0.11
229 2 3 0.00 -35.5775 -9.50712 -0.265
230 2 7 0.00 -34.86826 -8.869431 -1.43732
231 2 5 0.00 -35.406599 -7.821004 -2.195
232 2 5 0.00 -34.6965 -7.27777 -3.2697
233 2 5 0.00 -33.43897 -7.775080000000001 -3.60201
234 2 5 0.00 -32.88929 -8.816748 -2.86198
235 2 5 0.00 -33.59892 -9.359405 -1.78794
236 2 4 0.00 -36.8615 -7.864120000000001 0.295
237 2 4 0.00 -37.6695 -9.08812 -0.693
238 2 8 0.00 -35.701803999999996 -10.57586 -0.483552
239 2 6 0.00 -36.38505 -7.40657 -1.96614
240 2 6 0.00 -35.128184 -6.464780000000001 -3.84748
241 2 6 0.00 -32.889649999999996 -7.35074 -4.43859
242 2 6 0.00 -31.908459999999998 -9.208661000000001 -3.11773
243 2 6 0.00 -33.15396 -10.17351 -1.21973
244 2 2 0.00 -33.4174 -8.63312 -0.417
245 2 3 0.00 -32.0544 -8.25812 -0.984
246 2 7 0.00 -31.34516 -7.085800000000001 -0.3463110000000001
247 2 5 0.00 -31.883499 -6.32812 0.7021159999999999
248 2 5 0.00 -31.1734 -5.25342 1.2453499999999997
249 2 5 0.00 -29.915869999999998 -4.9211100000000005 0.7480399999999998
250 2 5 0.00 -29.36619 -5.6611400000000005 -0.29362800000000017
251 2 5 0.00 -30.07582 -6.735180000000001 -0.8362850000000001
252 2 4 0.00 -33.3384 -8.81812 0.659
253 2 4 0.00 -34.1464 -7.830120000000001 -0.565
254 2 8 0.00 -32.178703999999996 -8.039568000000001 -2.05274
255 2 6 0.00 -32.86195 -6.55698 1.1165499999999997
256 2 6 0.00 -31.605083999999998 -4.6756400000000005 2.0583399999999994
257 2 6 0.00 -29.36655 -4.084530000000001 1.1723799999999998
258 2 6 0.00 -28.38536 -5.405390000000001 -0.6855410000000002
259 2 6 0.00 -29.63086 -7.30339 -1.65039
260 2 2 0.00 -29.8943 -8.94012 0.11
261 2 3 0.00 -28.5313 -9.50712 -0.265
262 2 7 0.00 -27.82206 -8.869431 -1.43732
263 2 5 0.00 -28.360399 -7.821004 -2.195
264 2 5 0.00 -27.6503 -7.27777 -3.2697
265 2 5 0.00 -26.39277 -7.775080000000001 -3.60201
266 2 5 0.00 -25.84309 -8.816748 -2.86198
267 2 5 0.00 -26.55272 -9.359405 -1.78794
268 2 4 0.00 -29.8153 -7.864120000000001 0.295
269 2 4 0.00 -30.6233 -9.08812 -0.693
270 2 8 0.00 -28.655604 -10.57586 -0.483552
271 2 6 0.00 -29.33885 -7.40657 -1.96614
272 2 6 0.00 -28.081984 -6.464780000000001 -3.84748
273 2 6 0.00 -25.84345 -7.35074 -4.43859
274 2 6 0.00 -24.86226 -9.208661000000001 -3.11773
275 2 6 0.00 -26.10776 -10.17351 -1.21973
276 2 2 0.00 -26.3712 -8.63312 -0.417
277 2 3 0.00 -25.008200000000002 -8.25812 -0.984
278 2 7 0.00 -24.29896 -7.085800000000001 -0.3463110000000001
279 2 5 0.00 -24.837299 -6.32812 0.7021159999999999
280 2 5 0.00 -24.127200000000002 -5.25342 1.2453499999999997
281 2 5 0.00 -22.86967 -4.9211100000000005 0.7480399999999998
282 2 5 0.00 -22.31999 -5.6611400000000005 -0.29362800000000017
283 2 5 0.00 -23.02962 -6.735180000000001 -0.8362850000000001
284 2 4 0.00 -26.2922 -8.81812 0.659
285 2 4 0.00 -27.1002 -7.830120000000001 -0.565
286 2 8 0.00 -25.132504 -8.039568000000001 -2.05274
287 2 6 0.00 -25.81575 -6.55698 1.1165499999999997
288 2 6 0.00 -24.558884 -4.6756400000000005 2.0583399999999994
289 2 6 0.00 -22.32035 -4.084530000000001 1.1723799999999998
290 2 6 0.00 -21.33916 -5.405390000000001 -0.6855410000000002
291 2 6 0.00 -22.58466 -7.30339 -1.65039
292 2 2 0.00 -22.848100000000002 -8.94012 0.11
293 2 3 0.00 -21.485100000000003 -9.50712 -0.265
294 2 7 0.00 -20.77586 -8.869431 -1.43732
295 2 5 0.00 -21.314199000000002 -7.821004 -2.195
296 2 5 0.00 -20.604100000000003 -7.27777 -3.2697
297 2 5 0.00 -19.34657 -7.775080000000001 -3.60201
298 2 5 0.00 -18.79689 -8.816748 -2.86198
299 2 5 0.00 -19.506520000000002 -9.359405 -1.78794
300 2 4 0.00 -22.7691 -7.864120000000001 0.295
301 2 4 0.00 -23.5771 -9.08812 -0.693
302 2 8 0.00 -21.609404 -10.57586 -0.483552
303 2 6 0.00 -22.292650000000002 -7.40657 -1.96614
304 2 6 0.00 -21.035784 -6.464780000000001 -3.84748
305 2 6 0.00 -18.797250000000002 -7.35074 -4.43859
306 2 6 0.00 -17.81606 -9.208661000000001 -3.11773
307 2 6 0.00 -19.06156 -10.17351 -1.21973
308 2 2 0.00 -19.325000000000003 -8.63312 -0.417
309 2 2 0.00 -17.962000000000003 -8.25812 -0.984
310 2 7 0.00 -17.89 -7.976120000000001 -2.467
311 2 5 0.00 -19.0 -8.01712 -3.321
312 2 5 0.00 -18.863000000000003 -7.743120000000001 -4.685
313 2 5 0.00 -17.615000000000002 -7.42412 -5.214
314 2 5 0.00 -16.502000000000002 -7.377120000000001 -4.381
315 2 5 0.00 -16.639000000000003 -7.651120000000001 -3.018
316 2 4 0.00 -19.246000000000002 -8.81812 0.659
317 2 4 0.00 -20.054000000000002 -7.830120000000001 -0.565
318 2 4 0.00 -17.605 -7.367120000000001 -0.45100000000000007
319 2 6 0.00 -19.990000000000002 -8.262120000000001 -2.945
320 2 6 0.00 -19.734 -7.779120000000001 -5.334
321 2 6 0.00 -17.512 -7.211120000000001 -6.275
322 2 6 0.00 -15.526000000000002 -7.128120000000001 -4.789
323 2 6 0.00 -15.758000000000003 -7.61012 -2.381
324 2 4 0.00 -17.357000000000003 -9.12912 -0.841
325 3 1 0.00 -51.033 -8.94012 8.63312
326 3 3 0.00 -49.67 -9.50712 8.25812
327 3 7 0.00 -49.598 -10.990120000000001 7.976120000000001
328 3 5 0.00 -50.708 -11.84412 8.01712
329 3 5 0.00 -50.571 -13.208120000000001 7.74312
330 3 5 0.00 -49.323 -13.73712 7.42412
331 3 5 0.00 -48.21 -12.90412 7.377120000000001
332 3 5 0.00 -48.347 -11.54112 7.651120000000001
333 3 4 0.00 -50.954 -7.864120000000001 8.81812
334 3 4 0.00 -51.762 -9.08812 7.830120000000001
335 3 8 0.00 -49.313 -8.974120000000001 7.367120000000001
336 3 6 0.00 -51.698 -11.46812 8.262120000000001
337 3 6 0.00 -51.442 -13.85712 7.779120000000001
338 3 6 0.00 -49.22 -14.79812 7.21112
339 3 6 0.00 -47.234 -13.31212 7.128120000000001
340 3 6 0.00 -47.466 -10.90412 7.61012
341 3 4 0.00 -51.359 -9.45512 9.512120000000001
342 3 2 0.00 -47.50988 -8.63312 8.10612
343 3 3 0.00 -46.14688 -8.25812 7.5391200000000005
344 3 7 0.00 -46.07488 -7.976120000000001 6.05612
345 3 5 0.00 -47.18488 -8.01712 5.202120000000001
346 3 5 0.00 -47.04788 -7.743120000000001 3.838120000000001
347 3 5 0.00 -45.79988 -7.42412 3.30912
348 3 5 0.00 -44.68688 -7.377120000000001 4.14212
349 3 5 0.00 -44.82388 -7.651120000000001 5.505120000000001
350 3 4 0.00 -47.43088 -8.81812 9.182120000000001
351 3 4 0.00 -48.23888 -7.830120000000001 7.958120000000001
352 3 8 0.00 -45.789880000000004 -7.367120000000001 8.07212
353 3 6 0.00 -48.17488 -8.262120000000001 5.57812
354 3 6 0.00 -47.91888 -7.779120000000001 3.189120000000001
355 3 6 0.00 -45.69688 -7.211120000000001 2.24812
356 3 6 0.00 -43.71088 -7.128120000000001 3.7341200000000008
357 3 6 0.00 -43.94288 -7.61012 6.14212
358 3 2 0.00 -43.98677 -8.94012 8.63312
359 3 3 0.00 -42.62377 -9.50712 8.25812
360 3 7 0.00 -41.91453 -8.869431 7.085800000000001
361 3 5 0.00 -42.452869 -7.821004 6.32812
362 3 5 0.00 -41.74277 -7.27777 5.25342
363 3 5 0.00 -40.48524 -7.775080000000001 4.9211100000000005
364 3 5 0.00 -39.935559999999995 -8.816748 5.6611400000000005
365 3 5 0.00 -40.64519 -9.359405 6.735180000000001
366 3 4 0.00 -43.90777 -7.864120000000001 8.81812
367 3 4 0.00 -44.71577 -9.08812 7.830120000000001
368 3 8 0.00 -42.748073999999995 -10.57586 8.039568000000001
369 3 6 0.00 -43.43132 -7.40657 6.55698
370 3 6 0.00 -42.174454 -6.464780000000001 4.6756400000000005
371 3 6 0.00 -39.935919999999996 -7.35074 4.084530000000001
372 3 6 0.00 -38.95473 -9.208661000000001 5.405390000000001
373 3 6 0.00 -40.20023 -10.17351 7.30339
374 3 2 0.00 -40.4637 -8.63312 8.10612
375 3 3 0.00 -39.1007 -8.25812 7.5391200000000005
376 3 7 0.00 -38.39146 -7.085800000000001 8.176809
377 3 5 0.00 -38.929799 -6.32812 9.225236
378 3 5 0.00 -38.2197 -5.25342 9.76847
379 3 5 0.00 -36.96217 -4.9211100000000005 9.27116
380 3 5 0.00 -36.412490000000005 -5.6611400000000005 8.229492
381 3 5 0.00 -37.12212 -6.735180000000001 7.686835
382 3 4 0.00 -40.3847 -8.81812 9.182120000000001
383 3 4 0.00 -41.1927 -7.830120000000001 7.958120000000001
384 3 8 0.00 -39.225004 -8.039568000000001 6.4703800000000005
385 3 6 0.00 -39.90825 -6.55698 9.63967
386 3 6 0.00 -38.651384 -4.6756400000000005 10.58146
387 3 6 0.00 -36.41285 -4.084530000000001 9.695500000000001
388 3 6 0.00 -35.43166 -5.405390000000001 7.837579
389 3 6 0.00 -36.67716 -7.30339 6.872730000000001
390 3 2 0.00 -36.9405 -8.94012 8.63312
391 3 3 0.00 -35.5775 -9.50712 8.25812
392 3 7 0.00 -34.86826 -8.869431 7.085800000000001
393 3 5 0.00 -35.406599 -7.821004 6.32812
394 3 5 0.00 -34.6965 -7.27777 5.25342
395 3 5 0.00 -33.43897 -7.775080000000001 4.9211100000000005
396 3 5 0.00 -32.88929 -8.816748 5.6611400000000005
397 3 5 0.00 -33.59892 -9.359405 6.735180000000001
398 3 4 0.00 -36.8615 -7.864120000000001 8.81812
399 3 4 0.00 -37.6695 -9.08812 7.830120000000001
400 3 8 0.00 -35.701803999999996 -10.57586 8.039568000000001
401 3 6 0.00 -36.38505 -7.40657 6.55698
402 3 6 0.00 -35.128184 -6.464780000000001 4.6756400000000005
403 3 6 0.00 -32.889649999999996 -7.35074 4.084530000000001
404 3 6 0.00 -31.908459999999998 -9.208661000000001 5.405390000000001
405 3 6 0.00 -33.15396 -10.17351 7.30339
406 3 2 0.00 -33.4174 -8.63312 8.10612
407 3 3 0.00 -32.0544 -8.25812 7.5391200000000005
408 3 7 0.00 -31.34516 -7.085800000000001 8.176809
409 3 5 0.00 -31.883499 -6.32812 9.225236
410 3 5 0.00 -31.1734 -5.25342 9.76847
411 3 5 0.00 -29.915869999999998 -4.9211100000000005 9.27116
412 3 5 0.00 -29.36619 -5.6611400000000005 8.229492
413 3 5 0.00 -30.07582 -6.735180000000001 7.686835
414 3 4 0.00 -33.3384 -8.81812 9.182120000000001
415 3 4 0.00 -34.1464 -7.830120000000001 7.958120000000001
416 3 8 0.00 -32.178703999999996 -8.039568000000001 6.4703800000000005
417 3 6 0.00 -32.86195 -6.55698 9.63967
418 3 6 0.00 -31.605083999999998 -4.6756400000000005 10.58146
419 3 6 0.00 -29.36655 -4.084530000000001 9.695500000000001
420 3 6 0.00 -28.38536 -5.405390000000001 7.837579
421 3 6 0.00 -29.63086 -7.30339 6.872730000000001
422 3 2 0.00 -29.8943 -8.94012 8.63312
423 3 3 0.00 -28.5313 -9.50712 8.25812
424 3 7 0.00 -27.82206 -8.869431 7.085800000000001
425 3 5 0.00 -28.360399 -7.821004 6.32812
426 3 5 0.00 -27.6503 -7.27777 5.25342
427 3 5 0.00 -26.39277 -7.775080000000001 4.9211100000000005
428 3 5 0.00 -25.84309 -8.816748 5.6611400000000005
429 3 5 0.00 -26.55272 -9.359405 6.735180000000001
430 3 4 0.00 -29.8153 -7.864120000000001 8.81812
431 3 4 0.00 -30.6233 -9.08812 7.830120000000001
432 3 8 0.00 -28.655604 -10.57586 8.039568000000001
433 3 6 0.00 -29.33885 -7.40657 6.55698
434 3 6 0.00 -28.081984 -6.464780000000001 4.6756400000000005
435 3 6 0.00 -25.84345 -7.35074 4.084530000000001
436 3 6 0.00 -24.86226 -9.208661000000001 5.405390000000001
437 3 6 0.00 -26.10776 -10.17351 7.30339
438 3 2 0.00 -26.3712 -8.63312 8.10612
439 3 3 0.00 -25.008200000000002 -8.25812 7.5391200000000005
440 3 7 0.00 -24.29896 -7.085800000000001 8.176809
441 3 5 0.00 -24.837299 -6.32812 9.225236
442 3 5 0.00 -24.127200000000002 -5.25342 9.76847
443 3 5 0.00 -22.86967 -4.9211100000000005 9.27116
444 3 5 0.00 -22.31999 -5.6611400000000005 8.229492
445 3 5 0.00 -23.02962 -6.735180000000001 7.686835
446 3 4 0.00 -26.2922 -8.81812 9.182120000000001
447 3 4 0.00 -27.1002 -7.830120000000001 7.958120000000001
448 3 8 0.00 -25.132504 -8.039568000000001 6.4703800000000005
449 3 6 0.00 -25.81575 -6.55698 9.63967
450 3 6 0.00 -24.558884 -4.6756400000000005 10.58146
451 3 6 0.00 -22.32035 -4.084530000000001 9.695500000000001
452 3 6 0.00 -21.33916 -5.405390000000001 7.837579
453 3 6 0.00 -22.58466 -7.30339 6.872730000000001
454 3 2 0.00 -22.848100000000002 -8.94012 8.63312
455 3 3 0.00 -21.485100000000003 -9.50712 8.25812
456 3 7 0.00 -20.77586 -8.869431 7.085800000000001
457 3 5 0.00 -21.314199000000002 -7.821004 6.32812
458 3 5 0.00 -20.604100000000003 -7.27777 5.25342
459 3 5 0.00 -19.34657 -7.775080000000001 4.9211100000000005
460 3 5 0.00 -18.79689 -8.816748 5.6611400000000005
461 3 5 0.00 -19.506520000000002 -9.359405 6.735180000000001
462 3 4 0.00 -22.7691 -7.864120000000001 8.81812
463 3 4 0.00 -23.5771 -9.08812 7.830120000000001
464 3 8 0.00 -21.609404 -10.57586 8.039568000000001
465 3 6 0.00 -22.292650000000002 -7.40657 6.55698
466 3 6 0.00 -21.035784 -6.464780000000001 4.6756400000000005
467 3 6 0.00 -18.797250000000002 -7.35074 4.084530000000001
468 3 6 0.00 -17.81606 -9.208661000000001 5.405390000000001
469 3 6 0.00 -19.06156 -10.17351 7.30339
470 3 2 0.00 -19.325000000000003 -8.63312 8.10612
471 3 2 0.00 -17.962000000000003 -8.25812 7.5391200000000005
472 3 7 0.00 -17.89 -7.976120000000001 6.05612
473 3 5 0.00 -19.0 -8.01712 5.202120000000001
474 3 5 0.00 -18.863000000000003 -7.743120000000001 3.838120000000001
475 3 5 0.00 -17.615000000000002 -7.42412 3.30912
476 3 5 0.00 -16.502000000000002 -7.377120000000001 4.14212
477 3 5 0.00 -16.639000000000003 -7.651120000000001 5.505120000000001
478 3 4 0.00 -19.246000000000002 -8.81812 9.182120000000001
479 3 4 0.00 -20.054000000000002 -7.830120000000001 7.958120000000001
480 3 4 0.00 -17.605 -7.367120000000001 8.07212
481 3 6 0.00 -19.990000000000002 -8.262120000000001 5.57812
482 3 6 0.00 -19.734 -7.779120000000001 3.189120000000001
483 3 6 0.00 -17.512 -7.211120000000001 2.24812
484 3 6 0.00 -15.526000000000002 -7.128120000000001 3.7341200000000008
485 3 6 0.00 -15.758000000000003 -7.61012 6.14212
486 3 4 0.00 -17.357000000000003 -9.12912 7.68212
487 4 1 0.00 -51.033 -0.417 8.63312
488 4 3 0.00 -49.67 -0.984 8.25812
489 4 7 0.00 -48.96076 -0.346311 7.085800000000001
490 4 5 0.00 -49.499099 0.702116 6.32812
491 4 5 0.00 -48.789 1.24535 5.25342
492 4 5 0.00 -47.53147 0.74804 4.9211100000000005
493 4 5 0.00 -46.981790000000004 -0.293628 5.6611400000000005
494 4 5 0.00 -47.69142 -0.836285 6.735180000000001
495 4 4 0.00 -50.954 0.659 8.81812
496 4 4 0.00 -51.762 -0.565 7.830120000000001
497 4 8 0.00 -49.794304 -2.05274 8.039568000000001
498 4 6 0.00 -50.47755 1.11655 6.55698
499 4 6 0.00 -49.220684 2.05834 4.6756400000000005
500 4 6 0.00 -46.98215 1.17238 4.084530000000001
501 4 6 0.00 -46.00096 -0.685541 5.405390000000001
502 4 6 0.00 -47.24646 -1.65039 7.30339
503 4 4 0.00 -51.359 -0.932 9.512120000000001
504 4 2 0.00 -47.50988 -0.11000000000000003 8.10612
505 4 3 0.00 -46.14688 0.26499999999999996 7.5391200000000005
506 4 7 0.00 -45.43764 1.43732 8.176809
507 4 5 0.00 -45.975979 2.195 9.225236
508 4 5 0.00 -45.26588 3.2697 9.76847
509 4 5 0.00 -44.00835 3.60201 9.27116
510 4 5 0.00 -43.45867 2.86198 8.229492
511 4 5 0.00 -44.1683 1.78794 7.686835
512 4 4 0.00 -47.43088 -0.29499999999999993 9.182120000000001
513 4 4 0.00 -48.23888 0.693 7.958120000000001
514 4 8 0.00 -46.271184 0.48355199999999987 6.4703800000000005
515 4 6 0.00 -46.95443 1.96614 9.63967
516 4 6 0.00 -45.697564 3.84748 10.58146
517 4 6 0.00 -43.45903 4.43859 9.695500000000001
518 4 6 0.00 -42.47784 3.11773 7.837579
519 4 6 0.00 -43.72334 1.21973 6.872730000000001
520 4 2 0.00 -43.98677 -0.417 8.63312
521 4 3 0.00 -42.62377 -0.984 8.25812
522 4 7 0.00 -42.55177 -2.467 7.976120000000001
523 4 5 0.00 -43.66177 -3.321 8.01712
524 4 5 0.00 -43.52477 -4.685 7.74312
525 4 5 0.00 -42.27677 -5.214 7.42412
526 4 5 0.00 -41.16377 -4.381 7.377120000000001
527 4 5 0.00 -41.30077 -3.018 7.651120000000001
528 4 4 0.00 -43.90777 0.659 8.81812
529 4 4 0.00 -44.71577 -0.565 7.830120000000001
530 4 8 0.00 -42.26677 -0.451 7.367120000000001
531 4 6 0.00 -44.65177 -2.945 8.262120000000001
532 4 6 0.00 -44.39577 -5.334 7.779120000000001
533 4 6 0.00 -42.17377 -6.275 7.21112
534 4 6 0.00 -40.18777 -4.789 7.128120000000001
535 4 6 0.00 -40.41977 -2.381 7.61012
536 4 2 0.00 -40.4637 -0.11000000000000003 8.10612
537 4 3 0.00 -39.1007 0.26499999999999996 7.5391200000000005
538 4 7 0.00 -39.0287 0.5469999999999999 6.05612
539 4 5 0.00 -40.1387 0.5059999999999998 5.202120000000001
540 4 5 0.00 -40.0017 0.7799999999999997 3.838120000000001
541 4 5 0.00 -38.7537 1.0989999999999998 3.30912
542 4 5 0.00 -37.6407 1.1459999999999997 4.14212
543 4 5 0.00 -37.7777 0.8719999999999998 5.505120000000001
544 4 4 0.00 -40.3847 -0.29499999999999993 9.182120000000001
545 4 4 0.00 -41.1927 0.693 7.958120000000001
546 4 8 0.00 -38.743700000000004 1.156 8.07212
547 4 6 0.00 -41.1287 0.26099999999999984 5.57812
548 4 6 0.00 -40.8727 0.7439999999999997 3.189120000000001
549 4 6 0.00 -38.6507 1.3119999999999996 2.24812
550 4 6 0.00 -36.6647 1.3949999999999998 3.7341200000000008
551 4 6 0.00 -36.8967 0.9129999999999999 6.14212
552 4 2 0.00 -36.9405 -0.417 8.63312
553 4 3 0.00 -35.5775 -0.984 8.25812
554 4 7 0.00 -34.86826 -0.346311 7.085800000000001
555 4 5 0.00 -35.406599 0.702116 6.32812
556 4 5 0.00 -34.6965 1.24535 5.25342
557 4 5 0.00 -33.43897 0.74804 4.9211100000000005
558 4 5 0.00 -32.88929 -0.293628 5.6611400000000005
559 4 5 0.00 -33.59892 -0.836285 6.735180000000001
560 4 4 0.00 -36.8615 0.659 8.81812
561 4 4 0.00 -37.6695 -0.565 7.830120000000001
562 4 8 0.00 -35.701803999999996 -2.05274 8.039568000000001
563 4 6 0.00 -36.38505 1.11655 6.55698
564 4 6 0.00 -35.128184 2.05834 4.6756400000000005
565 4 6 0.00 -32.889649999999996 1.17238 4.084530000000001
566 4 6 0.00 -31.908459999999998 -0.685541 5.405390000000001
567 4 6 0.00 -33.15396 -1.65039 7.30339
568 4 2 0.00 -33.4174 -0.11000000000000003 8.10612
569 4 3 0.00 -32.0544 0.26499999999999996 7.5391200000000005
570 4 7 0.00 -31.9824 0.5469999999999999 6.05612
571 4 5 0.00 -33.0924 0.5059999999999998 5.202120000000001
572 4 5 0.00 -32.9554 0.7799999999999997 3.838120000000001
573 4 5 0.00 -31.7074 1.0989999999999998 3.30912
574 4 5 0.00 -30.5944 1.1459999999999997 4.14212
575 4 5 0.00 -30.7314 0.8719999999999998 5.505120000000001
576 4 4 0.00 -33.3384 -0.29499999999999993 9.182120000000001
577 4 4 0.00 -34.1464 0.693 7.958120000000001
578 4 8 0.00 -31.6974 1.156 8.07212
579 4 6 0.00 -34.0824 0.26099999999999984 5.57812
580 4 6 0.00 -33.8264 0.7439999999999997 3.189120000000001
581 4 6 0.00 -31.6044 1.3119999999999996 2.24812
582 4 6 0.00 -29.6184 1.3949999999999998 3.7341200000000008
583 4 6 0.00 -29.8504 0.9129999999999999 6.14212
584 4 2 0.00 -29.8943 -0.417 8.63312
585 4 3 0.00 -28.5313 -0.984 8.25812
586 4 7 0.00 -27.82206 -0.346311 7.085800000000001
587 4 5 0.00 -28.360399 0.702116 6.32812
588 4 5 0.00 -27.6503 1.24535 5.25342
589 4 5 0.00 -26.39277 0.74804 4.9211100000000005
590 4 5 0.00 -25.84309 -0.293628 5.6611400000000005
591 4 5 0.00 -26.55272 -0.836285 6.735180000000001
592 4 4 0.00 -29.8153 0.659 8.81812
593 4 4 0.00 -30.6233 -0.565 7.830120000000001
594 4 8 0.00 -28.655604 -2.05274 8.039568000000001
595 4 6 0.00 -29.33885 1.11655 6.55698
596 4 6 0.00 -28.081984 2.05834 4.6756400000000005
597 4 6 0.00 -25.84345 1.17238 4.084530000000001
598 4 6 0.00 -24.86226 -0.685541 5.405390000000001
599 4 6 0.00 -26.10776 -1.65039 7.30339
600 4 2 0.00 -26.3712 -0.11000000000000003 8.10612
601 4 3 0.00 -25.008200000000002 0.26499999999999996 7.5391200000000005
602 4 7 0.00 -24.9362 0.5469999999999999 6.05612
603 4 5 0.00 -26.0462 0.5059999999999998 5.202120000000001
604 4 5 0.00 -25.909200000000002 0.7799999999999997 3.838120000000001
605 4 5 0.00 -24.6612 1.0989999999999998 3.30912
606 4 5 0.00 -23.5482 1.1459999999999997 4.14212